   2   2   1   0
  0.2930501E+02  0.3560000E-09  0.3560000E-09  0.5340000E-09  0.5000000E-15
  1.000000000000000E-004
  CAR 
 Ru Ru                                   
     91.14369437    -42.04320944 3000      8.70547146      1.00000000
    -42.043  0.0000E+00  0.0000E+00  0.0000E+00  0.0000E+00
    -41.999  0.0000E+00  0.0000E+00  0.0000E+00  0.0000E+00
    -41.954  0.0000E+00  0.0000E+00  0.0000E+00  0.0000E+00
    -41.910  0.0000E+00  0.0000E+00  0.0000E+00  0.0000E+00
    -41.866  0.0000E+00  0.0000E+00  0.0000E+00  0.0000E+00
    -41.821  0.0000E+00  0.0000E+00  0.0000E+00  0.0000E+00
    -41.777  0.0000E+00  0.0000E+00  0.0000E+00  0.0000E+00
    -41.732  0.0000E+00  0.0000E+00  0.0000E+00  0.0000E+00
    -41.688  0.0000E+00  0.0000E+00  0.0000E+00  0.0000E+00
    -41.644  0.0000E+00  0.0000E+00  0.0000E+00  0.0000E+00
    -41.599  0.0000E+00  0.0000E+00  0.0000E+00  0.0000E+00
    -41.555  0.0000E+00  0.0000E+00  0.0000E+00  0.0000E+00
    -41.510  0.0000E+00  0.0000E+00  0.0000E+00  0.0000E+00
    -41.466  0.0000E+00  0.0000E+00  0.0000E+00  0.0000E+00
    -41.421  0.0000E+00  0.0000E+00  0.0000E+00  0.0000E+00
    -41.377  0.0000E+00  0.0000E+00  0.0000E+00  0.0000E+00
    -41.333  0.0000E+00  0.0000E+00  0.0000E+00  0.0000E+00
    -41.288  0.0000E+00  0.0000E+00  0.0000E+00  0.0000E+00
    -41.244  0.0000E+00  0.0000E+00  0.0000E+00  0.0000E+00
    -41.199  0.0000E+00  0.0000E+00  0.0000E+00  0.0000E+00
    -41.155  0.0000E+00  0.0000E+00  0.0000E+00  0.0000E+00
    -41.111  0.0000E+00  0.0000E+00  0.0000E+00  0.0000E+00
    -41.066  0.0000E+00  0.0000E+00  0.0000E+00  0.0000E+00
    -41.022  0.0000E+00  0.0000E+00  0.0000E+00  0.0000E+00
    -40.977  0.0000E+00  0.0000E+00  0.0000E+00  0.0000E+00
    -40.933  0.0000E+00  0.0000E+00  0.0000E+00  0.0000E+00
    -40.889  0.0000E+00  0.0000E+00  0.0000E+00  0.0000E+00
    -40.844  0.0000E+00  0.0000E+00  0.0000E+00  0.0000E+00
    -40.800  0.0000E+00  0.0000E+00  0.0000E+00  0.0000E+00
    -40.755  0.0000E+00  0.0000E+00  0.0000E+00  0.0000E+00
    -40.711  0.0000E+00  0.0000E+00  0.0000E+00  0.0000E+00
    -40.666  0.0000E+00  0.0000E+00  0.0000E+00  0.0000E+00
    -40.622  0.0000E+00  0.0000E+00  0.0000E+00  0.0000E+00
    -40.578  0.0000E+00  0.0000E+00  0.0000E+00  0.0000E+00
    -40.533  0.0000E+00  0.0000E+00  0.0000E+00  0.0000E+00
    -40.489  0.0000E+00  0.0000E+00  0.0000E+00  0.0000E+00
    -40.444  0.0000E+00  0.0000E+00  0.0000E+00  0.0000E+00
    -40.400  0.0000E+00  0.0000E+00  0.0000E+00  0.0000E+00
    -40.356  0.0000E+00  0.0000E+00  0.0000E+00  0.0000E+00
    -40.311  0.0000E+00  0.0000E+00  0.0000E+00  0.0000E+00
    -40.267  0.0000E+00  0.0000E+00  0.0000E+00  0.0000E+00
    -40.222  0.0000E+00  0.0000E+00  0.0000E+00  0.0000E+00
    -40.178  0.0000E+00  0.0000E+00  0.0000E+00  0.0000E+00
    -40.134  0.0000E+00  0.0000E+00  0.0000E+00  0.0000E+00
    -40.089  0.0000E+00  0.0000E+00  0.0000E+00  0.0000E+00
    -40.045  0.0000E+00  0.0000E+00  0.0000E+00  0.0000E+00
    -40.000  0.0000E+00  0.0000E+00  0.0000E+00  0.0000E+00
    -39.956  0.0000E+00  0.0000E+00  0.0000E+00  0.0000E+00
    -39.912  0.0000E+00  0.0000E+00  0.0000E+00  0.0000E+00
    -39.867  0.0000E+00  0.0000E+00  0.0000E+00  0.0000E+00
    -39.823  0.0000E+00  0.0000E+00  0.0000E+00  0.0000E+00
    -39.778  0.0000E+00  0.0000E+00  0.0000E+00  0.0000E+00
    -39.734  0.0000E+00  0.0000E+00  0.0000E+00  0.0000E+00
    -39.689  0.0000E+00  0.0000E+00  0.0000E+00  0.0000E+00
    -39.645  0.0000E+00  0.0000E+00  0.0000E+00  0.0000E+00
    -39.601  0.0000E+00  0.0000E+00  0.0000E+00  0.0000E+00
    -39.556  0.0000E+00  0.0000E+00  0.0000E+00  0.0000E+00
    -39.512  0.0000E+00  0.0000E+00  0.0000E+00  0.0000E+00
    -39.467  0.0000E+00  0.0000E+00  0.0000E+00  0.0000E+00
    -39.423  0.0000E+00  0.0000E+00  0.0000E+00  0.0000E+00
    -39.379  0.0000E+00  0.0000E+00  0.0000E+00  0.0000E+00
    -39.334  0.0000E+00  0.0000E+00  0.0000E+00  0.0000E+00
    -39.290  0.0000E+00  0.0000E+00  0.0000E+00  0.0000E+00
    -39.245  0.0000E+00  0.0000E+00  0.0000E+00  0.0000E+00
    -39.201  0.0000E+00  0.0000E+00  0.0000E+00  0.0000E+00
    -39.157  0.0000E+00  0.0000E+00  0.0000E+00  0.0000E+00
    -39.112  0.0000E+00  0.0000E+00  0.0000E+00  0.0000E+00
    -39.068  0.0000E+00  0.0000E+00  0.0000E+00  0.0000E+00
    -39.023  0.0000E+00  0.0000E+00  0.0000E+00  0.0000E+00
    -38.979  0.0000E+00  0.0000E+00  0.0000E+00  0.0000E+00
    -38.934  0.0000E+00  0.0000E+00  0.0000E+00  0.0000E+00
    -38.890  0.0000E+00  0.0000E+00  0.0000E+00  0.0000E+00
    -38.846  0.0000E+00  0.0000E+00  0.0000E+00  0.0000E+00
    -38.801  0.0000E+00  0.0000E+00  0.0000E+00  0.0000E+00
    -38.757  0.0000E+00  0.0000E+00  0.0000E+00  0.0000E+00
    -38.712  0.0000E+00  0.0000E+00  0.0000E+00  0.0000E+00
    -38.668  0.0000E+00  0.0000E+00  0.0000E+00  0.0000E+00
    -38.624  0.0000E+00  0.0000E+00  0.0000E+00  0.0000E+00
    -38.579  0.0000E+00  0.0000E+00  0.0000E+00  0.0000E+00
    -38.535  0.0000E+00  0.0000E+00  0.0000E+00  0.0000E+00
    -38.490  0.0000E+00  0.0000E+00  0.0000E+00  0.0000E+00
    -38.446  0.0000E+00  0.0000E+00  0.0000E+00  0.0000E+00
    -38.402  0.0000E+00  0.0000E+00  0.0000E+00  0.0000E+00
    -38.357  0.0000E+00  0.0000E+00  0.0000E+00  0.0000E+00
    -38.313  0.0000E+00  0.0000E+00  0.0000E+00  0.0000E+00
    -38.268  0.0000E+00  0.0000E+00  0.0000E+00  0.0000E+00
    -38.224  0.0000E+00  0.0000E+00  0.0000E+00  0.0000E+00
    -38.180  0.0000E+00  0.0000E+00  0.0000E+00  0.0000E+00
    -38.135  0.0000E+00  0.0000E+00  0.0000E+00  0.0000E+00
    -38.091  0.0000E+00  0.0000E+00  0.0000E+00  0.0000E+00
    -38.046  0.0000E+00  0.0000E+00  0.0000E+00  0.0000E+00
    -38.002  0.0000E+00  0.0000E+00  0.0000E+00  0.0000E+00
    -37.957  0.0000E+00  0.0000E+00  0.0000E+00  0.0000E+00
    -37.913  0.0000E+00  0.0000E+00  0.0000E+00  0.0000E+00
    -37.869  0.0000E+00  0.0000E+00  0.0000E+00  0.0000E+00
    -37.824  0.0000E+00  0.0000E+00  0.0000E+00  0.0000E+00
    -37.780  0.0000E+00  0.0000E+00  0.0000E+00  0.0000E+00
    -37.735  0.0000E+00  0.0000E+00  0.0000E+00  0.0000E+00
    -37.691  0.0000E+00  0.0000E+00  0.0000E+00  0.0000E+00
    -37.647  0.0000E+00  0.0000E+00  0.0000E+00  0.0000E+00
    -37.602  0.0000E+00  0.0000E+00  0.0000E+00  0.0000E+00
    -37.558  0.0000E+00  0.0000E+00  0.0000E+00  0.0000E+00
    -37.513  0.0000E+00  0.0000E+00  0.0000E+00  0.0000E+00
    -37.469  0.0000E+00  0.0000E+00  0.0000E+00  0.0000E+00
    -37.425  0.0000E+00  0.0000E+00  0.0000E+00  0.0000E+00
    -37.380  0.0000E+00  0.0000E+00  0.0000E+00  0.0000E+00
    -37.336  0.0000E+00  0.0000E+00  0.0000E+00  0.0000E+00
    -37.291  0.0000E+00  0.0000E+00  0.0000E+00  0.0000E+00
    -37.247  0.0000E+00  0.0000E+00  0.0000E+00  0.0000E+00
    -37.202  0.0000E+00  0.0000E+00  0.0000E+00  0.0000E+00
    -37.158  0.0000E+00  0.0000E+00  0.0000E+00  0.0000E+00
    -37.114  0.0000E+00  0.0000E+00  0.0000E+00  0.0000E+00
    -37.069  0.0000E+00  0.0000E+00  0.0000E+00  0.0000E+00
    -37.025  0.0000E+00  0.0000E+00  0.0000E+00  0.0000E+00
    -36.980  0.0000E+00  0.0000E+00  0.0000E+00  0.0000E+00
    -36.936  0.0000E+00  0.0000E+00  0.0000E+00  0.0000E+00
    -36.892  0.0000E+00  0.0000E+00  0.0000E+00  0.0000E+00
    -36.847  0.0000E+00  0.0000E+00  0.0000E+00  0.0000E+00
    -36.803  0.0000E+00  0.0000E+00  0.0000E+00  0.0000E+00
    -36.758  0.0000E+00  0.0000E+00  0.0000E+00  0.0000E+00
    -36.714  0.0000E+00  0.0000E+00  0.0000E+00  0.0000E+00
    -36.670  0.0000E+00  0.0000E+00  0.0000E+00  0.0000E+00
    -36.625  0.0000E+00  0.0000E+00  0.0000E+00  0.0000E+00
    -36.581  0.0000E+00  0.0000E+00  0.0000E+00  0.0000E+00
    -36.536  0.0000E+00  0.0000E+00  0.0000E+00  0.0000E+00
    -36.492  0.0000E+00  0.0000E+00  0.0000E+00  0.0000E+00
    -36.447  0.0000E+00  0.0000E+00  0.0000E+00  0.0000E+00
    -36.403  0.0000E+00  0.0000E+00  0.0000E+00  0.0000E+00
    -36.359  0.0000E+00  0.0000E+00  0.0000E+00  0.0000E+00
    -36.314  0.0000E+00  0.0000E+00  0.0000E+00  0.0000E+00
    -36.270  0.0000E+00  0.0000E+00  0.0000E+00  0.0000E+00
    -36.225  0.0000E+00  0.0000E+00  0.0000E+00  0.0000E+00
    -36.181  0.0000E+00  0.0000E+00  0.0000E+00  0.0000E+00
    -36.137  0.0000E+00  0.0000E+00  0.0000E+00  0.0000E+00
    -36.092  0.0000E+00  0.0000E+00  0.0000E+00  0.0000E+00
    -36.048  0.9375E-19  0.0000E+00  0.4163E-20  0.0000E+00
    -36.003  0.4092E-04  0.0000E+00  0.1817E-05  0.0000E+00
    -35.959  0.3336E-02  0.0000E+00  0.1500E-03  0.0000E+00
    -35.915  0.8618E-06  0.0000E+00  0.1500E-03  0.0000E+00
    -35.870  0.0000E+00  0.0000E+00  0.1500E-03  0.0000E+00
    -35.826  0.0000E+00  0.2901E-13  0.1500E-03  0.1288E-14
    -35.781  0.0000E+00  0.1094E-02  0.1500E-03  0.4859E-04
    -35.737  0.0000E+00  0.2283E-02  0.1500E-03  0.1500E-03
    -35.693  0.0000E+00  0.3133E-09  0.1500E-03  0.1500E-03
    -35.648  0.0000E+00  0.1494E-02  0.1500E-03  0.2164E-03
    -35.604  0.6934E-13  0.1881E-02  0.1500E-03  0.2999E-03
    -35.559  0.6999E-03  0.2639E-05  0.1811E-03  0.3000E-03
    -35.515  0.2628E-02  0.0000E+00  0.2978E-03  0.3000E-03
    -35.470  0.4985E-04  0.0000E+00  0.3000E-03  0.3000E-03
    -35.426  0.0000E+00  0.0000E+00  0.3000E-03  0.3000E-03
    -35.382  0.0000E+00  0.0000E+00  0.3000E-03  0.3000E-03
    -35.337  0.1129E-15  0.0000E+00  0.3000E-03  0.3000E-03
    -35.293  0.2463E-03  0.0000E+00  0.3109E-03  0.3000E-03
    -35.248  0.3131E-02  0.0000E+00  0.4500E-03  0.3000E-03
    -35.204  0.3374E-07  0.0000E+00  0.4500E-03  0.3000E-03
    -35.160  0.0000E+00  0.0000E+00  0.4500E-03  0.3000E-03
    -35.115  0.5469E-17  0.1694E-07  0.4500E-03  0.3000E-03
    -35.071  0.1194E-03  0.1840E-02  0.4553E-03  0.3817E-03
    -35.026  0.2132E-02  0.1538E-02  0.5500E-03  0.4500E-03
    -34.982  0.5202E-08  0.1379E-14  0.5500E-03  0.4500E-03
    -34.938  0.0000E+00  0.3666E-03  0.5500E-03  0.4663E-03
    -34.893  0.0000E+00  0.2986E-02  0.5500E-03  0.5989E-03
    -34.849  0.2104E-05  0.8746E-03  0.5501E-03  0.6377E-03
    -34.804  0.3866E-02  0.1402E-02  0.7218E-03  0.7000E-03
    -34.760  0.7239E-04  0.1875E-14  0.7250E-03  0.7000E-03
    -34.715  0.2800E-07  0.3166E-03  0.7250E-03  0.7141E-03
    -34.671  0.5581E-03  0.1935E-02  0.7498E-03  0.8000E-03
    -34.627  0.5360E-05  0.1733E-03  0.7500E-03  0.8077E-03
    -34.582  0.2251E-02  0.3896E-03  0.8500E-03  0.8250E-03
    -34.538  0.1693E-02  0.0000E+00  0.9252E-03  0.8250E-03
    -34.493  0.1684E-02  0.0000E+00  0.1000E-02  0.8250E-03
    -34.449  0.4539E-06  0.6010E-14  0.1000E-02  0.8250E-03
    -34.405  0.0000E+00  0.1907E-03  0.1000E-02  0.8335E-03
    -34.360  0.0000E+00  0.3722E-03  0.1000E-02  0.8500E-03
    -34.316  0.0000E+00  0.2386E-05  0.1000E-02  0.8501E-03
    -34.271  0.0000E+00  0.1686E-02  0.1000E-02  0.9250E-03
    -34.227  0.0000E+00  0.1578E-02  0.1000E-02  0.9950E-03
    -34.183  0.0000E+00  0.1116E-03  0.1000E-02  0.1000E-02
    -34.138  0.0000E+00  0.1562E-09  0.1000E-02  0.1000E-02
    -34.094  0.0000E+00  0.5059E-03  0.1000E-02  0.1022E-02
    -34.049  0.1750E-07  0.5701E-04  0.1000E-02  0.1025E-02
    -34.005  0.5565E-03  0.0000E+00  0.1025E-02  0.1025E-02
    -33.961  0.6427E-05  0.7635E-05  0.1025E-02  0.1025E-02
    -33.916  0.1725E-15  0.3021E-02  0.1025E-02  0.1159E-02
    -33.872  0.2755E-03  0.4811E-03  0.1037E-02  0.1181E-02
    -33.827  0.3665E-02  0.4312E-03  0.1200E-02  0.1200E-02
    -33.783  0.1234E-07  0.0000E+00  0.1200E-02  0.1200E-02
    -33.738  0.0000E+00  0.0000E+00  0.1200E-02  0.1200E-02
    -33.694  0.0000E+00  0.0000E+00  0.1200E-02  0.1200E-02
    -33.650  0.0000E+00  0.0000E+00  0.1200E-02  0.1200E-02
    -33.605  0.0000E+00  0.0000E+00  0.1200E-02  0.1200E-02
    -33.561  0.0000E+00  0.0000E+00  0.1200E-02  0.1200E-02
    -33.516  0.0000E+00  0.0000E+00  0.1200E-02  0.1200E-02
    -33.472  0.0000E+00  0.0000E+00  0.1200E-02  0.1200E-02
    -33.428  0.0000E+00  0.0000E+00  0.1200E-02  0.1200E-02
    -33.383  0.0000E+00  0.0000E+00  0.1200E-02  0.1200E-02
    -33.339  0.0000E+00  0.0000E+00  0.1200E-02  0.1200E-02
    -33.294  0.0000E+00  0.0000E+00  0.1200E-02  0.1200E-02
    -33.250  0.0000E+00  0.0000E+00  0.1200E-02  0.1200E-02
    -33.206  0.0000E+00  0.0000E+00  0.1200E-02  0.1200E-02
    -33.161  0.0000E+00  0.0000E+00  0.1200E-02  0.1200E-02
    -33.117  0.0000E+00  0.0000E+00  0.1200E-02  0.1200E-02
    -33.072  0.0000E+00  0.0000E+00  0.1200E-02  0.1200E-02
    -33.028  0.0000E+00  0.0000E+00  0.1200E-02  0.1200E-02
    -32.983  0.0000E+00  0.0000E+00  0.1200E-02  0.1200E-02
    -32.939  0.0000E+00  0.0000E+00  0.1200E-02  0.1200E-02
    -32.895  0.0000E+00  0.0000E+00  0.1200E-02  0.1200E-02
    -32.850  0.0000E+00  0.0000E+00  0.1200E-02  0.1200E-02
    -32.806  0.0000E+00  0.0000E+00  0.1200E-02  0.1200E-02
    -32.761  0.0000E+00  0.0000E+00  0.1200E-02  0.1200E-02
    -32.717  0.0000E+00  0.0000E+00  0.1200E-02  0.1200E-02
    -32.673  0.0000E+00  0.0000E+00  0.1200E-02  0.1200E-02
    -32.628  0.0000E+00  0.0000E+00  0.1200E-02  0.1200E-02
    -32.584  0.0000E+00  0.0000E+00  0.1200E-02  0.1200E-02
    -32.539  0.0000E+00  0.0000E+00  0.1200E-02  0.1200E-02
    -32.495  0.0000E+00  0.0000E+00  0.1200E-02  0.1200E-02
    -32.451  0.0000E+00  0.0000E+00  0.1200E-02  0.1200E-02
    -32.406  0.0000E+00  0.0000E+00  0.1200E-02  0.1200E-02
    -32.362  0.0000E+00  0.0000E+00  0.1200E-02  0.1200E-02
    -32.317  0.0000E+00  0.0000E+00  0.1200E-02  0.1200E-02
    -32.273  0.0000E+00  0.0000E+00  0.1200E-02  0.1200E-02
    -32.229  0.0000E+00  0.0000E+00  0.1200E-02  0.1200E-02
    -32.184  0.0000E+00  0.0000E+00  0.1200E-02  0.1200E-02
    -32.140  0.0000E+00  0.0000E+00  0.1200E-02  0.1200E-02
    -32.095  0.0000E+00  0.0000E+00  0.1200E-02  0.1200E-02
    -32.051  0.0000E+00  0.0000E+00  0.1200E-02  0.1200E-02
    -32.006  0.0000E+00  0.0000E+00  0.1200E-02  0.1200E-02
    -31.962  0.0000E+00  0.0000E+00  0.1200E-02  0.1200E-02
    -31.918  0.0000E+00  0.0000E+00  0.1200E-02  0.1200E-02
    -31.873  0.0000E+00  0.0000E+00  0.1200E-02  0.1200E-02
    -31.829  0.0000E+00  0.0000E+00  0.1200E-02  0.1200E-02
    -31.784  0.0000E+00  0.0000E+00  0.1200E-02  0.1200E-02
    -31.740  0.0000E+00  0.0000E+00  0.1200E-02  0.1200E-02
    -31.696  0.0000E+00  0.0000E+00  0.1200E-02  0.1200E-02
    -31.651  0.0000E+00  0.0000E+00  0.1200E-02  0.1200E-02
    -31.607  0.0000E+00  0.0000E+00  0.1200E-02  0.1200E-02
    -31.562  0.0000E+00  0.0000E+00  0.1200E-02  0.1200E-02
    -31.518  0.0000E+00  0.0000E+00  0.1200E-02  0.1200E-02
    -31.474  0.0000E+00  0.0000E+00  0.1200E-02  0.1200E-02
    -31.429  0.0000E+00  0.0000E+00  0.1200E-02  0.1200E-02
    -31.385  0.0000E+00  0.0000E+00  0.1200E-02  0.1200E-02
    -31.340  0.0000E+00  0.0000E+00  0.1200E-02  0.1200E-02
    -31.296  0.0000E+00  0.0000E+00  0.1200E-02  0.1200E-02
    -31.251  0.0000E+00  0.0000E+00  0.1200E-02  0.1200E-02
    -31.207  0.0000E+00  0.0000E+00  0.1200E-02  0.1200E-02
    -31.163  0.0000E+00  0.0000E+00  0.1200E-02  0.1200E-02
    -31.118  0.0000E+00  0.0000E+00  0.1200E-02  0.1200E-02
    -31.074  0.0000E+00  0.0000E+00  0.1200E-02  0.1200E-02
    -31.029  0.0000E+00  0.0000E+00  0.1200E-02  0.1200E-02
    -30.985  0.0000E+00  0.0000E+00  0.1200E-02  0.1200E-02
    -30.941  0.0000E+00  0.0000E+00  0.1200E-02  0.1200E-02
    -30.896  0.0000E+00  0.0000E+00  0.1200E-02  0.1200E-02
    -30.852  0.0000E+00  0.0000E+00  0.1200E-02  0.1200E-02
    -30.807  0.0000E+00  0.0000E+00  0.1200E-02  0.1200E-02
    -30.763  0.0000E+00  0.0000E+00  0.1200E-02  0.1200E-02
    -30.719  0.0000E+00  0.0000E+00  0.1200E-02  0.1200E-02
    -30.674  0.0000E+00  0.0000E+00  0.1200E-02  0.1200E-02
    -30.630  0.0000E+00  0.0000E+00  0.1200E-02  0.1200E-02
    -30.585  0.0000E+00  0.0000E+00  0.1200E-02  0.1200E-02
    -30.541  0.0000E+00  0.0000E+00  0.1200E-02  0.1200E-02
    -30.496  0.0000E+00  0.0000E+00  0.1200E-02  0.1200E-02
    -30.452  0.0000E+00  0.0000E+00  0.1200E-02  0.1200E-02
    -30.408  0.0000E+00  0.0000E+00  0.1200E-02  0.1200E-02
    -30.363  0.0000E+00  0.0000E+00  0.1200E-02  0.1200E-02
    -30.319  0.0000E+00  0.0000E+00  0.1200E-02  0.1200E-02
    -30.274  0.0000E+00  0.0000E+00  0.1200E-02  0.1200E-02
    -30.230  0.0000E+00  0.0000E+00  0.1200E-02  0.1200E-02
    -30.186  0.0000E+00  0.0000E+00  0.1200E-02  0.1200E-02
    -30.141  0.0000E+00  0.0000E+00  0.1200E-02  0.1200E-02
    -30.097  0.0000E+00  0.0000E+00  0.1200E-02  0.1200E-02
    -30.052  0.0000E+00  0.0000E+00  0.1200E-02  0.1200E-02
    -30.008  0.0000E+00  0.0000E+00  0.1200E-02  0.1200E-02
    -29.964  0.0000E+00  0.0000E+00  0.1200E-02  0.1200E-02
    -29.919  0.0000E+00  0.0000E+00  0.1200E-02  0.1200E-02
    -29.875  0.0000E+00  0.0000E+00  0.1200E-02  0.1200E-02
    -29.830  0.0000E+00  0.0000E+00  0.1200E-02  0.1200E-02
    -29.786  0.0000E+00  0.0000E+00  0.1200E-02  0.1200E-02
    -29.742  0.0000E+00  0.0000E+00  0.1200E-02  0.1200E-02
    -29.697  0.0000E+00  0.0000E+00  0.1200E-02  0.1200E-02
    -29.653  0.0000E+00  0.0000E+00  0.1200E-02  0.1200E-02
    -29.608  0.0000E+00  0.0000E+00  0.1200E-02  0.1200E-02
    -29.564  0.0000E+00  0.0000E+00  0.1200E-02  0.1200E-02
    -29.519  0.0000E+00  0.0000E+00  0.1200E-02  0.1200E-02
    -29.475  0.0000E+00  0.0000E+00  0.1200E-02  0.1200E-02
    -29.431  0.0000E+00  0.0000E+00  0.1200E-02  0.1200E-02
    -29.386  0.0000E+00  0.0000E+00  0.1200E-02  0.1200E-02
    -29.342  0.0000E+00  0.0000E+00  0.1200E-02  0.1200E-02
    -29.297  0.0000E+00  0.0000E+00  0.1200E-02  0.1200E-02
    -29.253  0.0000E+00  0.0000E+00  0.1200E-02  0.1200E-02
    -29.209  0.0000E+00  0.0000E+00  0.1200E-02  0.1200E-02
    -29.164  0.0000E+00  0.0000E+00  0.1200E-02  0.1200E-02
    -29.120  0.0000E+00  0.0000E+00  0.1200E-02  0.1200E-02
    -29.075  0.0000E+00  0.0000E+00  0.1200E-02  0.1200E-02
    -29.031  0.0000E+00  0.0000E+00  0.1200E-02  0.1200E-02
    -28.987  0.0000E+00  0.0000E+00  0.1200E-02  0.1200E-02
    -28.942  0.0000E+00  0.0000E+00  0.1200E-02  0.1200E-02
    -28.898  0.0000E+00  0.0000E+00  0.1200E-02  0.1200E-02
    -28.853  0.0000E+00  0.0000E+00  0.1200E-02  0.1200E-02
    -28.809  0.0000E+00  0.0000E+00  0.1200E-02  0.1200E-02
    -28.764  0.0000E+00  0.0000E+00  0.1200E-02  0.1200E-02
    -28.720  0.0000E+00  0.0000E+00  0.1200E-02  0.1200E-02
    -28.676  0.0000E+00  0.0000E+00  0.1200E-02  0.1200E-02
    -28.631  0.0000E+00  0.0000E+00  0.1200E-02  0.1200E-02
    -28.587  0.0000E+00  0.0000E+00  0.1200E-02  0.1200E-02
    -28.542  0.0000E+00  0.0000E+00  0.1200E-02  0.1200E-02
    -28.498  0.0000E+00  0.0000E+00  0.1200E-02  0.1200E-02
    -28.454  0.0000E+00  0.0000E+00  0.1200E-02  0.1200E-02
    -28.409  0.0000E+00  0.0000E+00  0.1200E-02  0.1200E-02
    -28.365  0.0000E+00  0.0000E+00  0.1200E-02  0.1200E-02
    -28.320  0.0000E+00  0.0000E+00  0.1200E-02  0.1200E-02
    -28.276  0.0000E+00  0.0000E+00  0.1200E-02  0.1200E-02
    -28.232  0.0000E+00  0.0000E+00  0.1200E-02  0.1200E-02
    -28.187  0.0000E+00  0.0000E+00  0.1200E-02  0.1200E-02
    -28.143  0.0000E+00  0.0000E+00  0.1200E-02  0.1200E-02
    -28.098  0.0000E+00  0.0000E+00  0.1200E-02  0.1200E-02
    -28.054  0.0000E+00  0.0000E+00  0.1200E-02  0.1200E-02
    -28.010  0.0000E+00  0.0000E+00  0.1200E-02  0.1200E-02
    -27.965  0.0000E+00  0.0000E+00  0.1200E-02  0.1200E-02
    -27.921  0.0000E+00  0.0000E+00  0.1200E-02  0.1200E-02
    -27.876  0.0000E+00  0.0000E+00  0.1200E-02  0.1200E-02
    -27.832  0.0000E+00  0.0000E+00  0.1200E-02  0.1200E-02
    -27.787  0.0000E+00  0.0000E+00  0.1200E-02  0.1200E-02
    -27.743  0.0000E+00  0.0000E+00  0.1200E-02  0.1200E-02
    -27.699  0.0000E+00  0.0000E+00  0.1200E-02  0.1200E-02
    -27.654  0.0000E+00  0.0000E+00  0.1200E-02  0.1200E-02
    -27.610  0.0000E+00  0.0000E+00  0.1200E-02  0.1200E-02
    -27.565  0.0000E+00  0.0000E+00  0.1200E-02  0.1200E-02
    -27.521  0.0000E+00  0.0000E+00  0.1200E-02  0.1200E-02
    -27.477  0.0000E+00  0.0000E+00  0.1200E-02  0.1200E-02
    -27.432  0.0000E+00  0.0000E+00  0.1200E-02  0.1200E-02
    -27.388  0.0000E+00  0.0000E+00  0.1200E-02  0.1200E-02
    -27.343  0.0000E+00  0.0000E+00  0.1200E-02  0.1200E-02
    -27.299  0.0000E+00  0.0000E+00  0.1200E-02  0.1200E-02
    -27.255  0.0000E+00  0.0000E+00  0.1200E-02  0.1200E-02
    -27.210  0.0000E+00  0.0000E+00  0.1200E-02  0.1200E-02
    -27.166  0.0000E+00  0.0000E+00  0.1200E-02  0.1200E-02
    -27.121  0.0000E+00  0.0000E+00  0.1200E-02  0.1200E-02
    -27.077  0.0000E+00  0.0000E+00  0.1200E-02  0.1200E-02
    -27.032  0.0000E+00  0.0000E+00  0.1200E-02  0.1200E-02
    -26.988  0.0000E+00  0.0000E+00  0.1200E-02  0.1200E-02
    -26.944  0.0000E+00  0.0000E+00  0.1200E-02  0.1200E-02
    -26.899  0.0000E+00  0.0000E+00  0.1200E-02  0.1200E-02
    -26.855  0.0000E+00  0.0000E+00  0.1200E-02  0.1200E-02
    -26.810  0.0000E+00  0.0000E+00  0.1200E-02  0.1200E-02
    -26.766  0.0000E+00  0.0000E+00  0.1200E-02  0.1200E-02
    -26.722  0.0000E+00  0.0000E+00  0.1200E-02  0.1200E-02
    -26.677  0.0000E+00  0.0000E+00  0.1200E-02  0.1200E-02
    -26.633  0.0000E+00  0.0000E+00  0.1200E-02  0.1200E-02
    -26.588  0.0000E+00  0.0000E+00  0.1200E-02  0.1200E-02
    -26.544  0.0000E+00  0.0000E+00  0.1200E-02  0.1200E-02
    -26.500  0.0000E+00  0.0000E+00  0.1200E-02  0.1200E-02
    -26.455  0.0000E+00  0.0000E+00  0.1200E-02  0.1200E-02
    -26.411  0.0000E+00  0.0000E+00  0.1200E-02  0.1200E-02
    -26.366  0.0000E+00  0.0000E+00  0.1200E-02  0.1200E-02
    -26.322  0.0000E+00  0.0000E+00  0.1200E-02  0.1200E-02
    -26.278  0.0000E+00  0.0000E+00  0.1200E-02  0.1200E-02
    -26.233  0.0000E+00  0.0000E+00  0.1200E-02  0.1200E-02
    -26.189  0.0000E+00  0.0000E+00  0.1200E-02  0.1200E-02
    -26.144  0.0000E+00  0.0000E+00  0.1200E-02  0.1200E-02
    -26.100  0.0000E+00  0.0000E+00  0.1200E-02  0.1200E-02
    -26.055  0.0000E+00  0.0000E+00  0.1200E-02  0.1200E-02
    -26.011  0.0000E+00  0.0000E+00  0.1200E-02  0.1200E-02
    -25.967  0.0000E+00  0.0000E+00  0.1200E-02  0.1200E-02
    -25.922  0.0000E+00  0.0000E+00  0.1200E-02  0.1200E-02
    -25.878  0.0000E+00  0.0000E+00  0.1200E-02  0.1200E-02
    -25.833  0.0000E+00  0.0000E+00  0.1200E-02  0.1200E-02
    -25.789  0.0000E+00  0.0000E+00  0.1200E-02  0.1200E-02
    -25.745  0.0000E+00  0.0000E+00  0.1200E-02  0.1200E-02
    -25.700  0.0000E+00  0.0000E+00  0.1200E-02  0.1200E-02
    -25.656  0.0000E+00  0.0000E+00  0.1200E-02  0.1200E-02
    -25.611  0.0000E+00  0.0000E+00  0.1200E-02  0.1200E-02
    -25.567  0.0000E+00  0.0000E+00  0.1200E-02  0.1200E-02
    -25.523  0.0000E+00  0.0000E+00  0.1200E-02  0.1200E-02
    -25.478  0.0000E+00  0.0000E+00  0.1200E-02  0.1200E-02
    -25.434  0.0000E+00  0.0000E+00  0.1200E-02  0.1200E-02
    -25.389  0.0000E+00  0.0000E+00  0.1200E-02  0.1200E-02
    -25.345  0.0000E+00  0.0000E+00  0.1200E-02  0.1200E-02
    -25.300  0.0000E+00  0.0000E+00  0.1200E-02  0.1200E-02
    -25.256  0.0000E+00  0.0000E+00  0.1200E-02  0.1200E-02
    -25.212  0.0000E+00  0.0000E+00  0.1200E-02  0.1200E-02
    -25.167  0.0000E+00  0.0000E+00  0.1200E-02  0.1200E-02
    -25.123  0.0000E+00  0.0000E+00  0.1200E-02  0.1200E-02
    -25.078  0.0000E+00  0.0000E+00  0.1200E-02  0.1200E-02
    -25.034  0.0000E+00  0.0000E+00  0.1200E-02  0.1200E-02
    -24.990  0.0000E+00  0.0000E+00  0.1200E-02  0.1200E-02
    -24.945  0.0000E+00  0.0000E+00  0.1200E-02  0.1200E-02
    -24.901  0.0000E+00  0.0000E+00  0.1200E-02  0.1200E-02
    -24.856  0.0000E+00  0.0000E+00  0.1200E-02  0.1200E-02
    -24.812  0.0000E+00  0.0000E+00  0.1200E-02  0.1200E-02
    -24.768  0.0000E+00  0.0000E+00  0.1200E-02  0.1200E-02
    -24.723  0.0000E+00  0.0000E+00  0.1200E-02  0.1200E-02
    -24.679  0.0000E+00  0.0000E+00  0.1200E-02  0.1200E-02
    -24.634  0.0000E+00  0.0000E+00  0.1200E-02  0.1200E-02
    -24.590  0.0000E+00  0.0000E+00  0.1200E-02  0.1200E-02
    -24.545  0.0000E+00  0.0000E+00  0.1200E-02  0.1200E-02
    -24.501  0.0000E+00  0.0000E+00  0.1200E-02  0.1200E-02
    -24.457  0.0000E+00  0.0000E+00  0.1200E-02  0.1200E-02
    -24.412  0.0000E+00  0.0000E+00  0.1200E-02  0.1200E-02
    -24.368  0.0000E+00  0.0000E+00  0.1200E-02  0.1200E-02
    -24.323  0.0000E+00  0.0000E+00  0.1200E-02  0.1200E-02
    -24.279  0.0000E+00  0.0000E+00  0.1200E-02  0.1200E-02
    -24.235  0.0000E+00  0.0000E+00  0.1200E-02  0.1200E-02
    -24.190  0.0000E+00  0.0000E+00  0.1200E-02  0.1200E-02
    -24.146  0.0000E+00  0.0000E+00  0.1200E-02  0.1200E-02
    -24.101  0.0000E+00  0.0000E+00  0.1200E-02  0.1200E-02
    -24.057  0.0000E+00  0.0000E+00  0.1200E-02  0.1200E-02
    -24.013  0.0000E+00  0.0000E+00  0.1200E-02  0.1200E-02
    -23.968  0.0000E+00  0.0000E+00  0.1200E-02  0.1200E-02
    -23.924  0.0000E+00  0.0000E+00  0.1200E-02  0.1200E-02
    -23.879  0.0000E+00  0.0000E+00  0.1200E-02  0.1200E-02
    -23.835  0.0000E+00  0.0000E+00  0.1200E-02  0.1200E-02
    -23.791  0.0000E+00  0.0000E+00  0.1200E-02  0.1200E-02
    -23.746  0.0000E+00  0.0000E+00  0.1200E-02  0.1200E-02
    -23.702  0.0000E+00  0.0000E+00  0.1200E-02  0.1200E-02
    -23.657  0.0000E+00  0.0000E+00  0.1200E-02  0.1200E-02
    -23.613  0.0000E+00  0.0000E+00  0.1200E-02  0.1200E-02
    -23.568  0.0000E+00  0.0000E+00  0.1200E-02  0.1200E-02
    -23.524  0.0000E+00  0.0000E+00  0.1200E-02  0.1200E-02
    -23.480  0.0000E+00  0.0000E+00  0.1200E-02  0.1200E-02
    -23.435  0.0000E+00  0.0000E+00  0.1200E-02  0.1200E-02
    -23.391  0.0000E+00  0.0000E+00  0.1200E-02  0.1200E-02
    -23.346  0.0000E+00  0.0000E+00  0.1200E-02  0.1200E-02
    -23.302  0.0000E+00  0.0000E+00  0.1200E-02  0.1200E-02
    -23.258  0.0000E+00  0.0000E+00  0.1200E-02  0.1200E-02
    -23.213  0.0000E+00  0.0000E+00  0.1200E-02  0.1200E-02
    -23.169  0.0000E+00  0.0000E+00  0.1200E-02  0.1200E-02
    -23.124  0.0000E+00  0.0000E+00  0.1200E-02  0.1200E-02
    -23.080  0.0000E+00  0.0000E+00  0.1200E-02  0.1200E-02
    -23.036  0.0000E+00  0.0000E+00  0.1200E-02  0.1200E-02
    -22.991  0.0000E+00  0.0000E+00  0.1200E-02  0.1200E-02
    -22.947  0.0000E+00  0.0000E+00  0.1200E-02  0.1200E-02
    -22.902  0.0000E+00  0.0000E+00  0.1200E-02  0.1200E-02
    -22.858  0.0000E+00  0.0000E+00  0.1200E-02  0.1200E-02
    -22.813  0.0000E+00  0.0000E+00  0.1200E-02  0.1200E-02
    -22.769  0.0000E+00  0.0000E+00  0.1200E-02  0.1200E-02
    -22.725  0.0000E+00  0.0000E+00  0.1200E-02  0.1200E-02
    -22.680  0.0000E+00  0.0000E+00  0.1200E-02  0.1200E-02
    -22.636  0.0000E+00  0.0000E+00  0.1200E-02  0.1200E-02
    -22.591  0.0000E+00  0.0000E+00  0.1200E-02  0.1200E-02
    -22.547  0.0000E+00  0.0000E+00  0.1200E-02  0.1200E-02
    -22.503  0.0000E+00  0.0000E+00  0.1200E-02  0.1200E-02
    -22.458  0.0000E+00  0.0000E+00  0.1200E-02  0.1200E-02
    -22.414  0.0000E+00  0.0000E+00  0.1200E-02  0.1200E-02
    -22.369  0.0000E+00  0.0000E+00  0.1200E-02  0.1200E-02
    -22.325  0.0000E+00  0.0000E+00  0.1200E-02  0.1200E-02
    -22.281  0.0000E+00  0.0000E+00  0.1200E-02  0.1200E-02
    -22.236  0.0000E+00  0.0000E+00  0.1200E-02  0.1200E-02
    -22.192  0.0000E+00  0.0000E+00  0.1200E-02  0.1200E-02
    -22.147  0.0000E+00  0.0000E+00  0.1200E-02  0.1200E-02
    -22.103  0.0000E+00  0.0000E+00  0.1200E-02  0.1200E-02
    -22.059  0.0000E+00  0.0000E+00  0.1200E-02  0.1200E-02
    -22.014  0.0000E+00  0.0000E+00  0.1200E-02  0.1200E-02
    -21.970  0.0000E+00  0.0000E+00  0.1200E-02  0.1200E-02
    -21.925  0.0000E+00  0.0000E+00  0.1200E-02  0.1200E-02
    -21.881  0.0000E+00  0.0000E+00  0.1200E-02  0.1200E-02
    -21.836  0.0000E+00  0.0000E+00  0.1200E-02  0.1200E-02
    -21.792  0.0000E+00  0.0000E+00  0.1200E-02  0.1200E-02
    -21.748  0.0000E+00  0.0000E+00  0.1200E-02  0.1200E-02
    -21.703  0.0000E+00  0.0000E+00  0.1200E-02  0.1200E-02
    -21.659  0.0000E+00  0.0000E+00  0.1200E-02  0.1200E-02
    -21.614  0.0000E+00  0.0000E+00  0.1200E-02  0.1200E-02
    -21.570  0.0000E+00  0.0000E+00  0.1200E-02  0.1200E-02
    -21.526  0.0000E+00  0.0000E+00  0.1200E-02  0.1200E-02
    -21.481  0.0000E+00  0.0000E+00  0.1200E-02  0.1200E-02
    -21.437  0.0000E+00  0.0000E+00  0.1200E-02  0.1200E-02
    -21.392  0.0000E+00  0.0000E+00  0.1200E-02  0.1200E-02
    -21.348  0.0000E+00  0.0000E+00  0.1200E-02  0.1200E-02
    -21.304  0.0000E+00  0.0000E+00  0.1200E-02  0.1200E-02
    -21.259  0.0000E+00  0.0000E+00  0.1200E-02  0.1200E-02
    -21.215  0.0000E+00  0.0000E+00  0.1200E-02  0.1200E-02
    -21.170  0.0000E+00  0.0000E+00  0.1200E-02  0.1200E-02
    -21.126  0.0000E+00  0.0000E+00  0.1200E-02  0.1200E-02
    -21.081  0.0000E+00  0.0000E+00  0.1200E-02  0.1200E-02
    -21.037  0.0000E+00  0.0000E+00  0.1200E-02  0.1200E-02
    -20.993  0.0000E+00  0.0000E+00  0.1200E-02  0.1200E-02
    -20.948  0.0000E+00  0.0000E+00  0.1200E-02  0.1200E-02
    -20.904  0.0000E+00  0.0000E+00  0.1200E-02  0.1200E-02
    -20.859  0.0000E+00  0.0000E+00  0.1200E-02  0.1200E-02
    -20.815  0.0000E+00  0.0000E+00  0.1200E-02  0.1200E-02
    -20.771  0.0000E+00  0.0000E+00  0.1200E-02  0.1200E-02
    -20.726  0.0000E+00  0.0000E+00  0.1200E-02  0.1200E-02
    -20.682  0.0000E+00  0.0000E+00  0.1200E-02  0.1200E-02
    -20.637  0.0000E+00  0.0000E+00  0.1200E-02  0.1200E-02
    -20.593  0.0000E+00  0.0000E+00  0.1200E-02  0.1200E-02
    -20.549  0.0000E+00  0.0000E+00  0.1200E-02  0.1200E-02
    -20.504  0.0000E+00  0.0000E+00  0.1200E-02  0.1200E-02
    -20.460  0.0000E+00  0.0000E+00  0.1200E-02  0.1200E-02
    -20.415  0.0000E+00  0.0000E+00  0.1200E-02  0.1200E-02
    -20.371  0.0000E+00  0.0000E+00  0.1200E-02  0.1200E-02
    -20.327  0.0000E+00  0.0000E+00  0.1200E-02  0.1200E-02
    -20.282  0.0000E+00  0.0000E+00  0.1200E-02  0.1200E-02
    -20.238  0.0000E+00  0.0000E+00  0.1200E-02  0.1200E-02
    -20.193  0.0000E+00  0.0000E+00  0.1200E-02  0.1200E-02
    -20.149  0.0000E+00  0.0000E+00  0.1200E-02  0.1200E-02
    -20.104  0.0000E+00  0.0000E+00  0.1200E-02  0.1200E-02
    -20.060  0.0000E+00  0.0000E+00  0.1200E-02  0.1200E-02