   4   4   1   0
  0.3136264E+02  0.5006000E-09  0.5006000E-09  0.5006000E-09  0.5000000E-15
  1.000000000000000E-004
  CAR 
 Pt Pt                                   
     39.86229935     -4.45760496 3000      7.09116462      1.00000000
     -4.458  0.0000E+00  0.0000E+00  0.0000E+00  0.0000E+00
     -4.443  0.0000E+00  0.0000E+00  0.0000E+00  0.0000E+00
     -4.428  0.0000E+00  0.0000E+00  0.0000E+00  0.0000E+00
     -4.413  0.0000E+00  0.0000E+00  0.0000E+00  0.0000E+00
     -4.398  0.0000E+00  0.0000E+00  0.0000E+00  0.0000E+00
     -4.384  0.0000E+00  0.0000E+00  0.0000E+00  0.0000E+00
     -4.369  0.0000E+00  0.0000E+00  0.0000E+00  0.0000E+00
     -4.354  0.0000E+00  0.0000E+00  0.0000E+00  0.0000E+00
     -4.339  0.0000E+00  0.0000E+00  0.0000E+00  0.0000E+00
     -4.325  0.0000E+00  0.0000E+00  0.0000E+00  0.0000E+00
     -4.310  0.0000E+00  0.0000E+00  0.0000E+00  0.0000E+00
     -4.295  0.0000E+00  0.0000E+00  0.0000E+00  0.0000E+00
     -4.280  0.0000E+00  0.0000E+00  0.0000E+00  0.0000E+00
     -4.265  0.0000E+00  0.0000E+00  0.0000E+00  0.0000E+00
     -4.251  0.0000E+00  0.0000E+00  0.0000E+00  0.0000E+00
     -4.236  0.0000E+00  0.0000E+00  0.0000E+00  0.0000E+00
     -4.221  0.0000E+00  0.0000E+00  0.0000E+00  0.0000E+00
     -4.206  0.0000E+00  0.0000E+00  0.0000E+00  0.0000E+00
     -4.192  0.0000E+00  0.0000E+00  0.0000E+00  0.0000E+00
     -4.177  0.0000E+00  0.0000E+00  0.0000E+00  0.0000E+00
     -4.162  0.0000E+00  0.0000E+00  0.0000E+00  0.0000E+00
     -4.147  0.0000E+00  0.0000E+00  0.0000E+00  0.0000E+00
     -4.132  0.0000E+00  0.0000E+00  0.0000E+00  0.0000E+00
     -4.118  0.0000E+00  0.0000E+00  0.0000E+00  0.0000E+00
     -4.103  0.0000E+00  0.0000E+00  0.0000E+00  0.0000E+00
     -4.088  0.0000E+00  0.0000E+00  0.0000E+00  0.0000E+00
     -4.073  0.0000E+00  0.0000E+00  0.0000E+00  0.0000E+00
     -4.059  0.0000E+00  0.0000E+00  0.0000E+00  0.0000E+00
     -4.044  0.0000E+00  0.0000E+00  0.0000E+00  0.0000E+00
     -4.029  0.0000E+00  0.0000E+00  0.0000E+00  0.0000E+00
     -4.014  0.0000E+00  0.0000E+00  0.0000E+00  0.0000E+00
     -3.999  0.0000E+00  0.0000E+00  0.0000E+00  0.0000E+00
     -3.985  0.0000E+00  0.0000E+00  0.0000E+00  0.0000E+00
     -3.970  0.0000E+00  0.0000E+00  0.0000E+00  0.0000E+00
     -3.955  0.0000E+00  0.0000E+00  0.0000E+00  0.0000E+00
     -3.940  0.0000E+00  0.0000E+00  0.0000E+00  0.0000E+00
     -3.926  0.0000E+00  0.0000E+00  0.0000E+00  0.0000E+00
     -3.911  0.0000E+00  0.0000E+00  0.0000E+00  0.0000E+00
     -3.896  0.0000E+00  0.0000E+00  0.0000E+00  0.0000E+00
     -3.881  0.0000E+00  0.0000E+00  0.0000E+00  0.0000E+00
     -3.866  0.0000E+00  0.0000E+00  0.0000E+00  0.0000E+00
     -3.852  0.0000E+00  0.0000E+00  0.0000E+00  0.0000E+00
     -3.837  0.0000E+00  0.0000E+00  0.0000E+00  0.0000E+00
     -3.822  0.0000E+00  0.0000E+00  0.0000E+00  0.0000E+00
     -3.807  0.0000E+00  0.0000E+00  0.0000E+00  0.0000E+00
     -3.793  0.0000E+00  0.0000E+00  0.0000E+00  0.0000E+00
     -3.778  0.0000E+00  0.0000E+00  0.0000E+00  0.0000E+00
     -3.763  0.0000E+00  0.0000E+00  0.0000E+00  0.0000E+00
     -3.748  0.0000E+00  0.0000E+00  0.0000E+00  0.0000E+00
     -3.733  0.0000E+00  0.0000E+00  0.0000E+00  0.0000E+00
     -3.719  0.0000E+00  0.0000E+00  0.0000E+00  0.0000E+00
     -3.704  0.0000E+00  0.0000E+00  0.0000E+00  0.0000E+00
     -3.689  0.0000E+00  0.0000E+00  0.0000E+00  0.0000E+00
     -3.674  0.0000E+00  0.0000E+00  0.0000E+00  0.0000E+00
     -3.660  0.0000E+00  0.0000E+00  0.0000E+00  0.0000E+00
     -3.645  0.0000E+00  0.0000E+00  0.0000E+00  0.0000E+00
     -3.630  0.0000E+00  0.0000E+00  0.0000E+00  0.0000E+00
     -3.615  0.0000E+00  0.0000E+00  0.0000E+00  0.0000E+00
     -3.600  0.0000E+00  0.0000E+00  0.0000E+00  0.0000E+00
     -3.586  0.0000E+00  0.0000E+00  0.0000E+00  0.0000E+00
     -3.571  0.0000E+00  0.0000E+00  0.0000E+00  0.0000E+00
     -3.556  0.0000E+00  0.0000E+00  0.0000E+00  0.0000E+00
     -3.541  0.0000E+00  0.0000E+00  0.0000E+00  0.0000E+00
     -3.527  0.0000E+00  0.0000E+00  0.0000E+00  0.0000E+00
     -3.512  0.0000E+00  0.0000E+00  0.0000E+00  0.0000E+00
     -3.497  0.0000E+00  0.0000E+00  0.0000E+00  0.0000E+00
     -3.482  0.0000E+00  0.0000E+00  0.0000E+00  0.0000E+00
     -3.467  0.0000E+00  0.0000E+00  0.0000E+00  0.0000E+00
     -3.453  0.0000E+00  0.0000E+00  0.0000E+00  0.0000E+00
     -3.438  0.0000E+00  0.0000E+00  0.0000E+00  0.0000E+00
     -3.423  0.0000E+00  0.0000E+00  0.0000E+00  0.0000E+00
     -3.408  0.0000E+00  0.0000E+00  0.0000E+00  0.0000E+00
     -3.394  0.0000E+00  0.0000E+00  0.0000E+00  0.0000E+00
     -3.379  0.0000E+00  0.0000E+00  0.0000E+00  0.0000E+00
     -3.364  0.0000E+00  0.0000E+00  0.0000E+00  0.0000E+00
     -3.349  0.0000E+00  0.0000E+00  0.0000E+00  0.0000E+00
     -3.334  0.0000E+00  0.0000E+00  0.0000E+00  0.0000E+00
     -3.320  0.0000E+00  0.0000E+00  0.0000E+00  0.0000E+00
     -3.305  0.0000E+00  0.0000E+00  0.0000E+00  0.0000E+00
     -3.290  0.0000E+00  0.0000E+00  0.0000E+00  0.0000E+00
     -3.275  0.0000E+00  0.0000E+00  0.0000E+00  0.0000E+00
     -3.261  0.0000E+00  0.0000E+00  0.0000E+00  0.0000E+00
     -3.246  0.0000E+00  0.0000E+00  0.0000E+00  0.0000E+00
     -3.231  0.0000E+00  0.0000E+00  0.0000E+00  0.0000E+00
     -3.216  0.0000E+00  0.0000E+00  0.0000E+00  0.0000E+00
     -3.201  0.0000E+00  0.0000E+00  0.0000E+00  0.0000E+00
     -3.187  0.0000E+00  0.0000E+00  0.0000E+00  0.0000E+00
     -3.172  0.0000E+00  0.0000E+00  0.0000E+00  0.0000E+00
     -3.157  0.0000E+00  0.0000E+00  0.0000E+00  0.0000E+00
     -3.142  0.0000E+00  0.0000E+00  0.0000E+00  0.0000E+00
     -3.128  0.0000E+00  0.0000E+00  0.0000E+00  0.0000E+00
     -3.113  0.0000E+00  0.0000E+00  0.0000E+00  0.0000E+00
     -3.098  0.0000E+00  0.0000E+00  0.0000E+00  0.0000E+00
     -3.083  0.0000E+00  0.0000E+00  0.0000E+00  0.0000E+00
     -3.068  0.0000E+00  0.0000E+00  0.0000E+00  0.0000E+00
     -3.054  0.0000E+00  0.0000E+00  0.0000E+00  0.0000E+00
     -3.039  0.0000E+00  0.0000E+00  0.0000E+00  0.0000E+00
     -3.024  0.0000E+00  0.0000E+00  0.0000E+00  0.0000E+00
     -3.009  0.0000E+00  0.0000E+00  0.0000E+00  0.0000E+00
     -2.995  0.0000E+00  0.0000E+00  0.0000E+00  0.0000E+00
     -2.980  0.0000E+00  0.0000E+00  0.0000E+00  0.0000E+00
     -2.965  0.0000E+00  0.0000E+00  0.0000E+00  0.0000E+00
     -2.950  0.0000E+00  0.0000E+00  0.0000E+00  0.0000E+00
     -2.935  0.0000E+00  0.0000E+00  0.0000E+00  0.0000E+00
     -2.921  0.0000E+00  0.0000E+00  0.0000E+00  0.0000E+00
     -2.906  0.0000E+00  0.0000E+00  0.0000E+00  0.0000E+00
     -2.891  0.0000E+00  0.0000E+00  0.0000E+00  0.0000E+00
     -2.876  0.0000E+00  0.0000E+00  0.0000E+00  0.0000E+00
     -2.862  0.0000E+00  0.0000E+00  0.0000E+00  0.0000E+00
     -2.847  0.0000E+00  0.0000E+00  0.0000E+00  0.0000E+00
     -2.832  0.0000E+00  0.0000E+00  0.0000E+00  0.0000E+00
     -2.817  0.0000E+00  0.0000E+00  0.0000E+00  0.0000E+00
     -2.802  0.0000E+00  0.0000E+00  0.0000E+00  0.0000E+00
     -2.788  0.0000E+00  0.0000E+00  0.0000E+00  0.0000E+00
     -2.773  0.0000E+00  0.0000E+00  0.0000E+00  0.0000E+00
     -2.758  0.0000E+00  0.0000E+00  0.0000E+00  0.0000E+00
     -2.743  0.0000E+00  0.0000E+00  0.0000E+00  0.0000E+00
     -2.729  0.0000E+00  0.0000E+00  0.0000E+00  0.0000E+00
     -2.714  0.0000E+00  0.0000E+00  0.0000E+00  0.0000E+00
     -2.699  0.0000E+00  0.0000E+00  0.0000E+00  0.0000E+00
     -2.684  0.0000E+00  0.0000E+00  0.0000E+00  0.0000E+00
     -2.669  0.0000E+00  0.0000E+00  0.0000E+00  0.0000E+00
     -2.655  0.0000E+00  0.0000E+00  0.0000E+00  0.0000E+00
     -2.640  0.0000E+00  0.0000E+00  0.0000E+00  0.0000E+00
     -2.625  0.0000E+00  0.0000E+00  0.0000E+00  0.0000E+00
     -2.610  0.0000E+00  0.0000E+00  0.0000E+00  0.0000E+00
     -2.596  0.0000E+00  0.0000E+00  0.0000E+00  0.0000E+00
     -2.581  0.0000E+00  0.0000E+00  0.0000E+00  0.0000E+00
     -2.566  0.0000E+00  0.0000E+00  0.0000E+00  0.0000E+00
     -2.551  0.0000E+00  0.0000E+00  0.0000E+00  0.0000E+00
     -2.536  0.0000E+00  0.0000E+00  0.0000E+00  0.0000E+00
     -2.522  0.0000E+00  0.0000E+00  0.0000E+00  0.0000E+00
     -2.507  0.0000E+00  0.0000E+00  0.0000E+00  0.0000E+00
     -2.492  0.5374E-16  0.1752E-17  0.7942E-18  0.2589E-19
     -2.477  0.1674E-10  0.1420E-11  0.2474E-12  0.2099E-13
     -2.463  0.7757E-07  0.1672E-07  0.1147E-08  0.2472E-09
     -2.448  0.6611E-05  0.3379E-05  0.9884E-07  0.5018E-07
     -2.433  0.1771E-04  0.1856E-04  0.3605E-06  0.3244E-06
     -2.418  0.2032E-05  0.4449E-05  0.3905E-06  0.3902E-06
     -2.403  0.5813E-08  0.3063E-07  0.3906E-06  0.3906E-06
     -2.389  0.2754E-12  0.3707E-11  0.3906E-06  0.3906E-06
     -2.374  0.1878E-18  0.6571E-17  0.3906E-06  0.3906E-06
     -2.359  0.0000E+00  0.0000E+00  0.3906E-06  0.3906E-06
     -2.344  0.0000E+00  0.0000E+00  0.3906E-06  0.3906E-06
     -2.330  0.0000E+00  0.0000E+00  0.3906E-06  0.3906E-06
     -2.315  0.0000E+00  0.0000E+00  0.3906E-06  0.3906E-06
     -2.300  0.3962E-18  0.8804E-20  0.3906E-06  0.3906E-06
     -2.285  0.7664E-12  0.4354E-13  0.3906E-06  0.3906E-06
     -2.270  0.2108E-07  0.3078E-08  0.3909E-06  0.3907E-06
     -2.256  0.9460E-05  0.3401E-05  0.5307E-06  0.4409E-06
     -2.241  0.1020E-03  0.8003E-04  0.2039E-05  0.1624E-05
     -2.226  0.4639E-04  0.7269E-04  0.2724E-05  0.2698E-05
     -2.211  0.6903E-06  0.2467E-05  0.2734E-05  0.2734E-05
     -2.197  0.1933E-09  0.1730E-08  0.2734E-05  0.2734E-05
     -2.182  0.8112E-15  0.1878E-13  0.2734E-05  0.2734E-05
     -2.167  0.0000E+00  0.0000E+00  0.2734E-05  0.2734E-05
     -2.152  0.0000E+00  0.0000E+00  0.2734E-05  0.2734E-05
     -2.137  0.0000E+00  0.0000E+00  0.2734E-05  0.2734E-05
     -2.123  0.0000E+00  0.0000E+00  0.2734E-05  0.2734E-05
     -2.108  0.2113E-18  0.0000E+00  0.2734E-05  0.2734E-05
     -2.093  0.5674E-12  0.2964E-13  0.2734E-05  0.2734E-05
     -2.078  0.2180E-07  0.2940E-08  0.2735E-05  0.2734E-05
     -2.064  0.1345E-04  0.4500E-05  0.2933E-05  0.2801E-05
     -2.049  0.1906E-03  0.1412E-03  0.5750E-05  0.4888E-05
     -2.034  0.1109E-03  0.1640E-03  0.7389E-05  0.7312E-05
     -2.019  0.2220E-05  0.7416E-05  0.7422E-05  0.7422E-05
     -2.004  0.8624E-09  0.7203E-08  0.7422E-05  0.7422E-05
     -1.990  0.5073E-14  0.1097E-12  0.7422E-05  0.7422E-05
     -1.975  0.0000E+00  0.0000E+00  0.7422E-05  0.7422E-05
     -1.960  0.0000E+00  0.0000E+00  0.7422E-05  0.7422E-05
     -1.945  0.0000E+00  0.0000E+00  0.7422E-05  0.7422E-05
     -1.931  0.0000E+00  0.0000E+00  0.7422E-05  0.7422E-05
     -1.916  0.7403E-16  0.2066E-17  0.7422E-05  0.7422E-05
     -1.901  0.3797E-10  0.2797E-11  0.7422E-05  0.7422E-05
     -1.886  0.2859E-06  0.5432E-07  0.7426E-05  0.7423E-05
     -1.871  0.3810E-04  0.1755E-04  0.7989E-05  0.7682E-05
     -1.857  0.1479E-03  0.1431E-03  0.1018E-04  0.9797E-05
     -1.842  0.2503E-04  0.5019E-04  0.1055E-04  0.1054E-04
     -1.827  0.1135E-06  0.5462E-06  0.1055E-04  0.1055E-04
     -1.812  0.8782E-11  0.1086E-09  0.1055E-04  0.1055E-04
     -1.798  0.9860E-17  0.3204E-15  0.1055E-04  0.1055E-04
     -1.783  0.0000E+00  0.0000E+00  0.1055E-04  0.1055E-04
     -1.768  0.0000E+00  0.0000E+00  0.1055E-04  0.1055E-04
     -1.753  0.0000E+00  0.0000E+00  0.1055E-04  0.1055E-04
     -1.738  0.0000E+00  0.0000E+00  0.1055E-04  0.1055E-04
     -1.724  0.3257E-18  0.8804E-20  0.1055E-04  0.1055E-04
     -1.709  0.6599E-12  0.3675E-13  0.1055E-04  0.1055E-04
     -1.694  0.1909E-07  0.2741E-08  0.1055E-04  0.1055E-04
     -1.679  0.8995E-05  0.3190E-05  0.1068E-04  0.1059E-04
     -1.665  0.1011E-03  0.7856E-04  0.1217E-04  0.1176E-04
     -1.650  0.4774E-04  0.7420E-04  0.1288E-04  0.1285E-04
     -1.635  0.7433E-06  0.2636E-05  0.1289E-04  0.1289E-04
     -1.620  0.2188E-09  0.1948E-08  0.1289E-04  0.1289E-04
     -1.605  0.9667E-15  0.2231E-13  0.1289E-04  0.1289E-04
     -1.591  0.0000E+00  0.0000E+00  0.1289E-04  0.1289E-04
     -1.576  0.0000E+00  0.0000E+00  0.1289E-04  0.1289E-04
     -1.561  0.0000E+00  0.0000E+00  0.1289E-04  0.1289E-04
     -1.546  0.4578E-18  0.0000E+00  0.1289E-04  0.1289E-04
     -1.532  0.1197E-11  0.5966E-13  0.1289E-04  0.1289E-04
     -1.517  0.4519E-07  0.5907E-08  0.1289E-04  0.1289E-04
     -1.502  0.2741E-04  0.9022E-05  0.1330E-04  0.1302E-04
     -1.487  0.3827E-03  0.2827E-03  0.1895E-04  0.1720E-04
     -1.472  0.2199E-03  0.3279E-03  0.2220E-04  0.2205E-04
     -1.458  0.4332E-05  0.1480E-04  0.2227E-04  0.2227E-04
     -1.443  0.1654E-08  0.1434E-07  0.2227E-04  0.2227E-04
     -1.428  0.9556E-14  0.2180E-12  0.2227E-04  0.2227E-04
     -1.413  0.0000E+00  0.0000E+00  0.2227E-04  0.2227E-04
     -1.399  0.0000E+00  0.0000E+00  0.2227E-04  0.2227E-04
     -1.384  0.0000E+00  0.0000E+00  0.2227E-04  0.2227E-04
     -1.369  0.8360E-13  0.3046E-14  0.2227E-04  0.2227E-04
     -1.354  0.7450E-08  0.7394E-09  0.2227E-04  0.2227E-04
     -1.339  0.1028E-04  0.2688E-05  0.2242E-04  0.2231E-04
     -1.325  0.2945E-03  0.1837E-03  0.2677E-04  0.2502E-04
     -1.310  0.3165E-03  0.4094E-03  0.3145E-04  0.3107E-04
     -1.295  0.1307E-04  0.3853E-04  0.3164E-04  0.3164E-04
     -1.280  0.1146E-07  0.8734E-07  0.3164E-04  0.3164E-04
     -1.266  0.1568E-12  0.3235E-11  0.3164E-04  0.3164E-04
     -1.251  0.0000E+00  0.1690E-17  0.3164E-04  0.3164E-04
     -1.236  0.0000E+00  0.0000E+00  0.3164E-04  0.3164E-04
     -1.221  0.0000E+00  0.0000E+00  0.3164E-04  0.3164E-04
     -1.206  0.0000E+00  0.0000E+00  0.3164E-04  0.3164E-04
     -1.192  0.0000E+00  0.0000E+00  0.3164E-04  0.3164E-04
     -1.177  0.0000E+00  0.0000E+00  0.3164E-04  0.3164E-04
     -1.162  0.0000E+00  0.0000E+00  0.3164E-04  0.3164E-04
     -1.147  0.0000E+00  0.0000E+00  0.3164E-04  0.3164E-04
     -1.133  0.0000E+00  0.0000E+00  0.3164E-04  0.3164E-04
     -1.118  0.0000E+00  0.0000E+00  0.3164E-04  0.3164E-04
     -1.103  0.0000E+00  0.0000E+00  0.3164E-04  0.3164E-04
     -1.088  0.0000E+00  0.0000E+00  0.3164E-04  0.3164E-04
     -1.073  0.0000E+00  0.0000E+00  0.3164E-04  0.3164E-04
     -1.059  0.0000E+00  0.0000E+00  0.3164E-04  0.3164E-04
     -1.044  0.0000E+00  0.0000E+00  0.3164E-04  0.3164E-04
     -1.029  0.4050E-18  0.0000E+00  0.3164E-04  0.3164E-04
     -1.014  0.9367E-12  0.4022E-13  0.3164E-04  0.3164E-04
     -0.999  0.3043E-07  0.3628E-08  0.3164E-04  0.3164E-04
     -0.985  0.1601E-04  0.5066E-05  0.3188E-04  0.3172E-04
     -0.970  0.1977E-03  0.1466E-03  0.3480E-04  0.3388E-04
     -0.955  0.1017E-03  0.1589E-03  0.3630E-04  0.3623E-04
     -0.940  0.1755E-05  0.6630E-05  0.3633E-04  0.3633E-04
     -0.926  0.5788E-09  0.5879E-08  0.3633E-04  0.3633E-04
     -0.911  0.2875E-14  0.8141E-13  0.3633E-04  0.3633E-04
     -0.896  0.1295E-14  0.2264E-16  0.3633E-04  0.3633E-04
     -0.881  0.4029E-09  0.2170E-10  0.3633E-04  0.3633E-04
     -0.866  0.1865E-05  0.3008E-06  0.3636E-04  0.3633E-04
     -0.852  0.1588E-03  0.7082E-04  0.3870E-04  0.3738E-04
     -0.837  0.4249E-03  0.4422E-03  0.4498E-04  0.4391E-04
     -0.822  0.4871E-04  0.1201E-03  0.4570E-04  0.4569E-04
     -0.807  0.4418E-06  0.1017E-05  0.4571E-04  0.4570E-04
     -0.793  0.3316E-04  0.1530E-04  0.4620E-04  0.4593E-04
     -0.778  0.1094E-03  0.1092E-03  0.4781E-04  0.4754E-04
     -0.763  0.1565E-04  0.3374E-04  0.4805E-04  0.4804E-04
     -0.748  0.5813E-07  0.3153E-06  0.4805E-04  0.4805E-04
     -0.733  0.3633E-11  0.5310E-10  0.4805E-04  0.4805E-04
     -0.719  0.3275E-17  0.1321E-15  0.4805E-04  0.4805E-04
     -0.704  0.0000E+00  0.0000E+00  0.4805E-04  0.4805E-04
     -0.689  0.3522E-19  0.0000E+00  0.4805E-04  0.4805E-04
     -0.674  0.1188E-12  0.3868E-14  0.4805E-04  0.4805E-04
     -0.660  0.9482E-08  0.8753E-09  0.4805E-04  0.4805E-04
     -0.645  0.1177E-04  0.2974E-05  0.4822E-04  0.4809E-04
     -0.630  0.3068E-03  0.1910E-03  0.5276E-04  0.5091E-04
     -0.615  0.3043E-03  0.4044E-03  0.5725E-04  0.5689E-04
     -0.600  0.1145E-04  0.3598E-04  0.5742E-04  0.5742E-04
     -0.586  0.9023E-08  0.7636E-07  0.5742E-04  0.5742E-04
     -0.571  0.1105E-12  0.2639E-11  0.5742E-04  0.5742E-04
     -0.556  0.3522E-19  0.1268E-17  0.5742E-04  0.5742E-04
     -0.541  0.2357E-12  0.6241E-14  0.5742E-04  0.5742E-04
     -0.527  0.1514E-07  0.1226E-08  0.5742E-04  0.5742E-04
     -0.512  0.1536E-04  0.3641E-05  0.5765E-04  0.5748E-04
     -0.497  0.3567E-03  0.2129E-03  0.6292E-04  0.6062E-04
     -0.482  0.4281E-03  0.5127E-03  0.6925E-04  0.6820E-04
     -0.467  0.4540E-04  0.1145E-03  0.6992E-04  0.6989E-04
     -0.453  0.2675E-06  0.2130E-05  0.6992E-04  0.6992E-04
     -0.438  0.3305E-10  0.1027E-08  0.6992E-04  0.6992E-04
     -0.423  0.6095E-16  0.7751E-14  0.6992E-04  0.6992E-04
     -0.408  0.0000E+00  0.0000E+00  0.6992E-04  0.6992E-04
     -0.394  0.0000E+00  0.0000E+00  0.6992E-04  0.6992E-04
     -0.379  0.0000E+00  0.0000E+00  0.6992E-04  0.6992E-04
     -0.364  0.0000E+00  0.0000E+00  0.6992E-04  0.6992E-04
     -0.349  0.0000E+00  0.0000E+00  0.6992E-04  0.6992E-04
     -0.334  0.0000E+00  0.0000E+00  0.6992E-04  0.6992E-04
     -0.320  0.0000E+00  0.0000E+00  0.6992E-04  0.6992E-04
     -0.305  0.0000E+00  0.0000E+00  0.6992E-04  0.6992E-04
     -0.290  0.0000E+00  0.0000E+00  0.6992E-04  0.6992E-04
     -0.275  0.0000E+00  0.0000E+00  0.6992E-04  0.6992E-04
     -0.261  0.0000E+00  0.0000E+00  0.6992E-04  0.6992E-04
     -0.246  0.0000E+00  0.0000E+00  0.6992E-04  0.6992E-04
     -0.231  0.7241E-15  0.1014E-16  0.6992E-04  0.6992E-04
     -0.216  0.2661E-09  0.1202E-10  0.6992E-04  0.6992E-04
     -0.201  0.1448E-05  0.2058E-06  0.6994E-04  0.6992E-04
     -0.187  0.1431E-03  0.5901E-04  0.7206E-04  0.7080E-04
     -0.172  0.4331E-03  0.4351E-03  0.7846E-04  0.7723E-04
     -0.157  0.5659E-04  0.1387E-03  0.7929E-04  0.7928E-04
     -0.142  0.9825E-05  0.2552E-05  0.7944E-04  0.7931E-04
     -0.128  0.4570E-03  0.1955E-03  0.8619E-04  0.8220E-04
     -0.113  0.7515E-03  0.8929E-03  0.9730E-04  0.9540E-04
     -0.098  0.5050E-04  0.1782E-03  0.9805E-04  0.9803E-04
     -0.083  0.7736E-07  0.9846E-06  0.9805E-04  0.9805E-04
     -0.068  0.1897E-11  0.9405E-10  0.9805E-04  0.9805E-04
     -0.054  0.5634E-18  0.1309E-15  0.9805E-04  0.9805E-04
     -0.039  0.0000E+00  0.0000E+00  0.9805E-04  0.9805E-04
     -0.024  0.0000E+00  0.0000E+00  0.9805E-04  0.9805E-04
     -0.009  0.4213E-15  0.3169E-18  0.9805E-04  0.9805E-04
      0.005  0.1806E-09  0.9228E-12  0.9805E-04  0.9805E-04
      0.020  0.1141E-05  0.3798E-07  0.9806E-04  0.9805E-04
      0.035  0.1293E-03  0.2501E-04  0.9998E-04  0.9842E-04
      0.050  0.4390E-03  0.3749E-03  0.1065E-03  0.1040E-03
      0.065  0.6466E-04  0.2295E-03  0.1074E-03  0.1073E-03
      0.079  0.2486E-06  0.4878E-05  0.1074E-03  0.1074E-03
      0.094  0.1612E-10  0.2026E-08  0.1074E-03  0.1074E-03
      0.109  0.1507E-16  0.1277E-13  0.1074E-03  0.1074E-03
      0.124  0.0000E+00  0.0000E+00  0.1074E-03  0.1074E-03
      0.138  0.6475E-17  0.3522E-19  0.1074E-03  0.1074E-03
      0.153  0.5975E-11  0.1252E-12  0.1074E-03  0.1074E-03
      0.168  0.7992E-07  0.6290E-08  0.1074E-03  0.1074E-03
      0.183  0.1821E-04  0.5016E-05  0.1077E-03  0.1075E-03
      0.198  0.1107E-03  0.8887E-04  0.1093E-03  0.1088E-03
      0.212  0.2935E-04  0.6309E-04  0.1098E-03  0.1097E-03
      0.227  0.2281E-06  0.1601E-05  0.1098E-03  0.1098E-03
      0.242  0.3150E-10  0.8116E-09  0.1098E-03  0.1098E-03
      0.257  0.7131E-16  0.6294E-14  0.1098E-03  0.1098E-03
      0.271  0.9687E-11  0.3584E-14  0.1098E-03  0.1098E-03
      0.286  0.1895E-06  0.8397E-09  0.1098E-03  0.1098E-03
      0.301  0.6367E-04  0.3019E-05  0.1107E-03  0.1098E-03
      0.316  0.5610E-03  0.2168E-03  0.1190E-03  0.1130E-03
      0.331  0.3767E-03  0.6110E-03  0.1246E-03  0.1220E-03
      0.345  0.4289E-03  0.5039E-03  0.1309E-03  0.1295E-03
      0.360  0.5369E-04  0.1441E-03  0.1317E-03  0.1316E-03
      0.375  0.6228E-04  0.9254E-05  0.1326E-03  0.1318E-03
      0.390  0.3872E-04  0.7040E-04  0.1332E-03  0.1328E-03
      0.404  0.2802E-04  0.2989E-04  0.1336E-03  0.1332E-03
      0.419  0.4001E-03  0.1868E-03  0.1395E-03  0.1360E-03
      0.434  0.5674E-03  0.5913E-03  0.1479E-03  0.1447E-03
      0.449  0.2669E-03  0.4489E-03  0.1518E-03  0.1514E-03
      0.464  0.1555E-04  0.3925E-04  0.1521E-03  0.1520E-03
      0.478  0.3142E-03  0.2579E-04  0.1567E-03  0.1523E-03
      0.493  0.9005E-03  0.5356E-03  0.1700E-03  0.1602E-03
      0.508  0.3557E-03  0.8395E-03  0.1753E-03  0.1727E-03
      0.523  0.7207E-05  0.1830E-03  0.1754E-03  0.1754E-03
      0.537  0.3036E-08  0.2135E-05  0.1754E-03  0.1754E-03
      0.552  0.1982E-13  0.4982E-09  0.1754E-03  0.1754E-03
      0.567  0.0000E+00  0.1744E-14  0.1754E-03  0.1754E-03
      0.582  0.1949E-17  0.0000E+00  0.1754E-03  0.1754E-03
      0.597  0.3568E-11  0.9148E-15  0.1754E-03  0.1754E-03
      0.611  0.9313E-07  0.3144E-09  0.1754E-03  0.1754E-03
      0.626  0.3981E-04  0.1603E-05  0.1760E-03  0.1754E-03
      0.641  0.4151E-03  0.1492E-03  0.1821E-03  0.1776E-03
      0.656  0.2382E-03  0.4373E-03  0.1856E-03  0.1841E-03
      0.670  0.5053E-03  0.1496E-03  0.1931E-03  0.1863E-03
      0.685  0.1123E-02  0.8288E-03  0.2097E-03  0.1985E-03
      0.700  0.8661E-03  0.1340E-02  0.2225E-03  0.2183E-03
      0.715  0.3801E-03  0.3590E-03  0.2281E-03  0.2237E-03
      0.730  0.6568E-03  0.4686E-03  0.2378E-03  0.2306E-03
      0.744  0.4254E-03  0.8174E-03  0.2441E-03  0.2427E-03
      0.759  0.2847E-04  0.1261E-03  0.2445E-03  0.2445E-03
      0.774  0.2620E-06  0.7680E-06  0.2445E-03  0.2445E-03
      0.789  0.4230E-04  0.7334E-06  0.2452E-03  0.2445E-03
      0.803  0.3290E-03  0.7541E-04  0.2500E-03  0.2457E-03
      0.818  0.6134E-03  0.4161E-03  0.2591E-03  0.2518E-03
      0.833  0.3456E-03  0.5591E-03  0.2642E-03  0.2601E-03
      0.848  0.3889E-03  0.3738E-03  0.2699E-03  0.2656E-03
      0.863  0.2131E-03  0.3188E-03  0.2731E-03  0.2703E-03
      0.877  0.5261E-03  0.3035E-03  0.2809E-03  0.2748E-03
      0.892  0.8904E-04  0.4536E-03  0.2822E-03  0.2815E-03
      0.907  0.1802E-03  0.5617E-04  0.2848E-03  0.2823E-03
      0.922  0.1238E-03  0.2058E-03  0.2867E-03  0.2854E-03
      0.936  0.3041E-05  0.9033E-04  0.2867E-03  0.2867E-03
      0.951  0.1350E-04  0.1781E-05  0.2869E-03  0.2867E-03
      0.966  0.3974E-03  0.9027E-04  0.2928E-03  0.2881E-03
      0.981  0.7396E-03  0.5776E-03  0.3037E-03  0.2966E-03
      0.996  0.1189E-03  0.5360E-03  0.3055E-03  0.3045E-03
      1.010  0.2525E-03  0.7741E-04  0.3092E-03  0.3057E-03
      1.025  0.1335E-02  0.6614E-03  0.3289E-03  0.3154E-03
      1.040  0.3409E-03  0.1147E-02  0.3340E-03  0.3324E-03
      1.055  0.4009E-03  0.2100E-03  0.3399E-03  0.3355E-03
      1.069  0.2731E-03  0.4489E-03  0.3439E-03  0.3421E-03
      1.084  0.1175E-03  0.1222E-03  0.3457E-03  0.3439E-03
      1.099  0.8765E-03  0.1947E-03  0.3586E-03  0.3468E-03
      1.114  0.6583E-03  0.9425E-03  0.3684E-03  0.3607E-03
      1.129  0.4435E-03  0.6216E-03  0.3749E-03  0.3699E-03
      1.143  0.1396E-02  0.4552E-03  0.3955E-03  0.3767E-03
      1.158  0.4810E-03  0.1415E-02  0.4026E-03  0.3976E-03
      1.173  0.3802E-04  0.3455E-03  0.4032E-03  0.4027E-03
      1.188  0.3089E-03  0.2640E-04  0.4078E-03  0.4031E-03
      1.202  0.2735E-03  0.3305E-03  0.4118E-03  0.4079E-03
      1.217  0.1322E-03  0.2723E-03  0.4138E-03  0.4120E-03
      1.232  0.4445E-03  0.1541E-03  0.4203E-03  0.4142E-03
      1.247  0.1113E-03  0.4335E-03  0.4220E-03  0.4206E-03
      1.262  0.8063E-03  0.1440E-03  0.4339E-03  0.4228E-03
      1.276  0.2217E-02  0.1091E-02  0.4667E-03  0.4389E-03
      1.291  0.1791E-02  0.2346E-02  0.4931E-03  0.4736E-03
      1.306  0.2274E-03  0.1394E-02  0.4965E-03  0.4942E-03
      1.321  0.1005E-03  0.1575E-03  0.4980E-03  0.4965E-03
      1.335  0.2006E-03  0.7798E-04  0.5009E-03  0.4976E-03
      1.350  0.1416E-03  0.2183E-03  0.5030E-03  0.5009E-03
      1.365  0.4512E-03  0.2522E-03  0.5097E-03  0.5046E-03
      1.380  0.4151E-03  0.3848E-03  0.5158E-03  0.5103E-03
      1.395  0.1754E-02  0.4985E-03  0.5417E-03  0.5176E-03
      1.409  0.1426E-02  0.1924E-02  0.5628E-03  0.5461E-03
      1.424  0.5764E-03  0.1123E-02  0.5713E-03  0.5627E-03
      1.439  0.1915E-03  0.5906E-03  0.5742E-03  0.5714E-03
      1.454  0.3766E-03  0.2285E-03  0.5797E-03  0.5748E-03
      1.468  0.2427E-03  0.4421E-03  0.5833E-03  0.5813E-03
      1.483  0.4130E-03  0.1317E-03  0.5894E-03  0.5833E-03
      1.498  0.1150E-02  0.3582E-03  0.6064E-03  0.5886E-03
      1.513  0.3291E-03  0.1240E-02  0.6113E-03  0.6069E-03
      1.528  0.4208E-04  0.2976E-03  0.6119E-03  0.6113E-03
      1.542  0.8238E-03  0.8990E-04  0.6241E-03  0.6126E-03
      1.557  0.7306E-03  0.9485E-03  0.6349E-03  0.6266E-03
      1.572  0.4107E-03  0.5720E-03  0.6409E-03  0.6351E-03
      1.587  0.2134E-03  0.4266E-03  0.6441E-03  0.6414E-03
      1.601  0.1006E-03  0.1833E-03  0.6456E-03  0.6441E-03
      1.616  0.4633E-03  0.6409E-04  0.6524E-03  0.6451E-03
      1.631  0.4294E-03  0.4467E-03  0.6588E-03  0.6517E-03
      1.646  0.2710E-03  0.4245E-03  0.6628E-03  0.6579E-03
      1.661  0.7875E-05  0.3222E-03  0.6629E-03  0.6627E-03
      1.675  0.3948E-06  0.1373E-04  0.6629E-03  0.6629E-03
      1.690  0.8877E-04  0.9859E-06  0.6642E-03  0.6629E-03
      1.705  0.1073E-02  0.1375E-03  0.6801E-03  0.6649E-03
      1.720  0.1770E-02  0.1170E-02  0.7062E-03  0.6822E-03
      1.734  0.1610E-02  0.1614E-02  0.7300E-03  0.7061E-03
      1.749  0.5051E-03  0.1626E-02  0.7375E-03  0.7301E-03
      1.764  0.5288E-03  0.5572E-03  0.7453E-03  0.7383E-03
      1.779  0.1341E-02  0.5005E-03  0.7651E-03  0.7457E-03
      1.794  0.9358E-03  0.1320E-02  0.7789E-03  0.7652E-03
      1.808  0.2529E-02  0.9135E-03  0.8163E-03  0.7787E-03
      1.823  0.5943E-03  0.2585E-02  0.8251E-03  0.8169E-03
      1.838  0.4105E-03  0.5315E-03  0.8311E-03  0.8248E-03
      1.853  0.1890E-03  0.3384E-03  0.8339E-03  0.8298E-03
      1.867  0.2894E-05  0.2751E-03  0.8340E-03  0.8339E-03
      1.882  0.1061E-08  0.8289E-05  0.8340E-03  0.8340E-03
      1.897  0.9953E-06  0.5237E-08  0.8340E-03  0.8340E-03
      1.912  0.8151E-04  0.7794E-06  0.8352E-03  0.8340E-03
      1.927  0.2114E-03  0.7375E-04  0.8383E-03  0.8351E-03
      1.941  0.7353E-04  0.2181E-03  0.8394E-03  0.8383E-03
      1.956  0.4453E-03  0.2095E-03  0.8460E-03  0.8414E-03
      1.971  0.4973E-03  0.4338E-03  0.8533E-03  0.8478E-03
      1.986  0.4102E-03  0.3228E-03  0.8594E-03  0.8526E-03
      2.000  0.2439E-04  0.4427E-03  0.8598E-03  0.8591E-03
      2.015  0.2865E-05  0.4303E-04  0.8598E-03  0.8598E-03
      2.030  0.2838E-03  0.2547E-05  0.8640E-03  0.8598E-03
      2.045  0.9580E-03  0.2681E-03  0.8782E-03  0.8638E-03
      2.060  0.5685E-03  0.1040E-02  0.8866E-03  0.8791E-03
      2.074  0.4119E-03  0.5587E-03  0.8926E-03  0.8874E-03
      2.089  0.1239E-02  0.4127E-03  0.9110E-03  0.8935E-03
      2.104  0.9223E-03  0.1146E-02  0.9246E-03  0.9104E-03
      2.119  0.4886E-03  0.9218E-03  0.9318E-03  0.9240E-03
      2.133  0.5774E-03  0.5897E-03  0.9403E-03  0.9328E-03
      2.148  0.2356E-03  0.4961E-03  0.9438E-03  0.9401E-03
      2.163  0.2352E-04  0.2406E-03  0.9442E-03  0.9436E-03
      2.178  0.2491E-03  0.3583E-04  0.9479E-03  0.9442E-03
      2.193  0.9093E-03  0.2387E-03  0.9613E-03  0.9477E-03
      2.207  0.5711E-03  0.9124E-03  0.9697E-03  0.9612E-03
      2.222  0.3179E-03  0.5769E-03  0.9744E-03  0.9697E-03
      2.237  0.5548E-04  0.3089E-03  0.9752E-03  0.9743E-03
      2.252  0.4174E-03  0.6176E-04  0.9814E-03  0.9752E-03
      2.266  0.2278E-03  0.4102E-03  0.9848E-03  0.9812E-03
      2.281  0.4631E-03  0.2048E-03  0.9916E-03  0.9843E-03
      2.296  0.7987E-03  0.3938E-03  0.1003E-02  0.9901E-03
      2.311  0.9094E-03  0.8863E-03  0.1017E-02  0.1003E-02
      2.326  0.8092E-03  0.8484E-03  0.1029E-02  0.1016E-02
      2.340  0.1364E-03  0.8564E-03  0.1031E-02  0.1028E-02
      2.355  0.1520E-05  0.1663E-03  0.1031E-02  0.1031E-02
      2.370  0.1542E-03  0.1742E-05  0.1033E-02  0.1031E-02
      2.385  0.1227E-02  0.1313E-03  0.1051E-02  0.1033E-02
      2.399  0.5115E-03  0.1132E-02  0.1059E-02  0.1050E-02
      2.414  0.9354E-05  0.6174E-03  0.1059E-02  0.1059E-02
      2.429  0.1014E-06  0.2158E-04  0.1059E-02  0.1059E-02
      2.444  0.4060E-04  0.4101E-07  0.1060E-02  0.1059E-02
      2.459  0.4289E-03  0.1646E-04  0.1066E-02  0.1059E-02
      2.473  0.5217E-03  0.3575E-03  0.1074E-02  0.1065E-02
      2.488  0.8166E-03  0.6402E-03  0.1086E-02  0.1074E-02
      2.503  0.2166E-02  0.8099E-03  0.1118E-02  0.1086E-02
      2.518  0.1070E-02  0.2100E-02  0.1134E-02  0.1117E-02
      2.532  0.1768E-03  0.1121E-02  0.1136E-02  0.1134E-02
      2.547  0.4854E-03  0.2253E-03  0.1143E-02  0.1137E-02
      2.562  0.8153E-03  0.4841E-03  0.1155E-02  0.1144E-02
      2.577  0.4494E-03  0.8602E-03  0.1162E-02  0.1157E-02
      2.592  0.1642E-03  0.3639E-03  0.1164E-02  0.1162E-02
      2.606  0.4269E-03  0.2349E-03  0.1171E-02  0.1166E-02
      2.621  0.5041E-04  0.3747E-03  0.1171E-02  0.1171E-02
      2.636  0.1492E-06  0.2493E-04  0.1171E-02  0.1171E-02
      2.651  0.3571E-10  0.3776E-07  0.1171E-02  0.1171E-02
      2.666  0.3596E-06  0.4590E-11  0.1171E-02  0.1171E-02
      2.680  0.8464E-04  0.9581E-07  0.1173E-02  0.1171E-02
      2.695  0.8699E-03  0.4458E-04  0.1186E-02  0.1172E-02
      2.710  0.9134E-03  0.7532E-03  0.1199E-02  0.1183E-02
      2.725  0.1775E-03  0.1024E-02  0.1202E-02  0.1198E-02
      2.739  0.3378E-03  0.1957E-03  0.1207E-02  0.1201E-02
      2.754  0.1447E-02  0.3350E-03  0.1228E-02  0.1206E-02
      2.769  0.7509E-03  0.1357E-02  0.1239E-02  0.1226E-02
      2.784  0.1947E-04  0.8565E-03  0.1239E-02  0.1239E-02
      2.799  0.1777E-03  0.3672E-04  0.1242E-02  0.1240E-02
      2.813  0.9372E-03  0.2002E-03  0.1256E-02  0.1242E-02
      2.828  0.1433E-02  0.6931E-03  0.1277E-02  0.1253E-02
      2.843  0.3091E-03  0.1491E-02  0.1282E-02  0.1275E-02
      2.858  0.1696E-03  0.4795E-03  0.1284E-02  0.1282E-02